/*--------------------------------*- C++ -*----------------------------------*\
| =========                 |                                                 |
| \\      /  F ield         | OpenFOAM: The Open Source CFD Toolbox           |
|  \\    /   O peration     | Version:  v1806                                 |
|   \\  /    A nd           | Web:      www.OpenFOAM.com                      |
|    \\/     M anipulation  |                                                 |
\*---------------------------------------------------------------------------*/
FoamFile
{
    version     2.0;
    format      ascii;
    class       volScalarField;
    location    "0.02";
    object      diffH;
}
// * * * * * * * * * * * * * * * * * * * * * * * * * * * * * * * * * * * * * //

dimensions      [0 0 0 1 0 0 0];


internalField   nonuniform List<scalar> 
37
(
0.019423
-0.00286358
-0.0160238
0.00169096
-0.0156579
-0.0101278
0.00110875
0.048713
0.0420445
-0.00986211
0.00367261
0.0165843
-0.00511929
-0.0250481
-0.000477573
0.0252893
-0.0272306
0.0345582
0.0283446
0.0842074
0.0104288
-0.0187665
-0.0148223
0.0187277
0.0484838
0.0189381
-0.0149206
-0.038226
-0.0129071
0.0140354
0.00736688
0.00134359
0.00339362
-0.0130891
-0.0301061
0.133855
0.0929865
)
;

boundaryField
{
    frontAndBack
    {
        type            empty;
    }
    top
    {
        type            fixedValue;
        value           uniform 100;
    }
    left
    {
        type            zeroGradient;
    }
    bottom
    {
        type            fixedValue;
        value           uniform 50;
    }
    right
    {
        type            zeroGradient;
    }
}


// ************************************************************************* //
