/*--------------------------------*- C++ -*----------------------------------*\
| =========                 |                                                 |
| \\      /  F ield         | OpenFOAM: The Open Source CFD Toolbox           |
|  \\    /   O peration     | Version:  v1806                                 |
|   \\  /    A nd           | Web:      www.OpenFOAM.com                      |
|    \\/     M anipulation  |                                                 |
\*---------------------------------------------------------------------------*/
FoamFile
{
    version     2.0;
    format      ascii;
    class       volScalarField;
    location    "0.03";
    object      diffH;
}
// * * * * * * * * * * * * * * * * * * * * * * * * * * * * * * * * * * * * * //

dimensions      [0 0 0 1 0 0 0];


internalField   nonuniform List<scalar> 
37
(
0.000196801
-0.000137945
-0.000196489
-8.66242e-05
-0.000134059
-9.38848e-05
4.75416e-05
0.000432515
0.000575629
-0.000136288
0.000108804
0.000254532
2.1993e-05
-0.000281677
1.15765e-06
0.000283564
-0.000360795
0.000327719
0.000383557
0.00125375
5.31169e-06
-0.000176492
-0.000144887
0.000198891
0.000544695
0.000209128
-0.000307168
-0.000386089
-0.000348363
0.000155708
8.74055e-05
-7.54594e-05
-3.50242e-05
-0.000148213
-0.000806
0.00139483
0.00150398
)
;

boundaryField
{
    frontAndBack
    {
        type            empty;
    }
    top
    {
        type            fixedValue;
        value           uniform 100;
    }
    left
    {
        type            zeroGradient;
    }
    bottom
    {
        type            fixedValue;
        value           uniform 50;
    }
    right
    {
        type            zeroGradient;
    }
}


// ************************************************************************* //
