/*--------------------------------*- C++ -*----------------------------------*\
| =========                 |                                                 |
| \\      /  F ield         | OpenFOAM: The Open Source CFD Toolbox           |
|  \\    /   O peration     | Version:  v1806                                 |
|   \\  /    A nd           | Web:      www.OpenFOAM.com                      |
|    \\/     M anipulation  |                                                 |
\*---------------------------------------------------------------------------*/
FoamFile
{
    version     2.0;
    format      ascii;
    class       volScalarField;
    location    "0.015";
    object      diffH;
}
// * * * * * * * * * * * * * * * * * * * * * * * * * * * * * * * * * * * * * //

dimensions      [0 0 0 1 0 0 0];


internalField   nonuniform List<scalar> 
37
(
0.856386
-0.032568
0.152113
-0.00723831
0.239332
0.368365
0.529651
0.0911571
0.131521
0.468492
0.53136
0.574311
0.183889
0.189384
0.0301709
0.015452
0.169141
1.14008
0.888456
1.24347
0.700326
0.142459
0.105202
-0.165753
0.18876
0.671801
0.556857
0.0506145
0.757519
0.604608
0.553834
0.65797
0.653513
-0.423119
1.19235
1.32521
0.736029
)
;

boundaryField
{
    frontAndBack
    {
        type            empty;
    }
    top
    {
        type            fixedValue;
        value           uniform 100;
    }
    left
    {
        type            zeroGradient;
    }
    bottom
    {
        type            fixedValue;
        value           uniform 50;
    }
    right
    {
        type            zeroGradient;
    }
}


// ************************************************************************* //
