/*--------------------------------*- C++ -*----------------------------------*\
| =========                 |                                                 |
| \\      /  F ield         | OpenFOAM: The Open Source CFD Toolbox           |
|  \\    /   O peration     | Version:  v1806                                 |
|   \\  /    A nd           | Web:      www.OpenFOAM.com                      |
|    \\/     M anipulation  |                                                 |
\*---------------------------------------------------------------------------*/
FoamFile
{
    version     2.0;
    format      ascii;
    class       volScalarField;
    location    "0.035";
    object      diffH;
}
// * * * * * * * * * * * * * * * * * * * * * * * * * * * * * * * * * * * * * //

dimensions      [0 0 0 1 0 0 0];


internalField   nonuniform List<scalar> 
37
(
0.000223548
2.26017e-05
6.33651e-05
3.62802e-06
4.73484e-06
2.01134e-05
5.82553e-05
-3.39753e-05
3.8217e-05
5.90221e-05
4.07639e-05
3.15039e-05
-6.26375e-06
3.57058e-06
-6.9786e-06
-2.61699e-06
2.38524e-05
0.000270433
0.000262976
0.000402191
0.000163526
1.42304e-05
4.93841e-06
-1.57251e-05
-4.06788e-06
0.000124463
0.000152624
7.42625e-05
0.000163144
7.04593e-05
5.76052e-05
0.000202007
0.000149943
-1.58497e-05
0.000192151
0.000253511
0.000265815
)
;

boundaryField
{
    frontAndBack
    {
        type            empty;
    }
    top
    {
        type            fixedValue;
        value           uniform 100;
    }
    left
    {
        type            zeroGradient;
    }
    bottom
    {
        type            fixedValue;
        value           uniform 50;
    }
    right
    {
        type            zeroGradient;
    }
}


// ************************************************************************* //
