/*--------------------------------*- C++ -*----------------------------------*\
| =========                 |                                                 |
| \\      /  F ield         | OpenFOAM: The Open Source CFD Toolbox           |
|  \\    /   O peration     | Version:  v1806                                 |
|   \\  /    A nd           | Web:      www.OpenFOAM.com                      |
|    \\/     M anipulation  |                                                 |
\*---------------------------------------------------------------------------*/
FoamFile
{
    version     2.0;
    format      ascii;
    class       volScalarField;
    location    "0.025";
    object      diffH;
}
// * * * * * * * * * * * * * * * * * * * * * * * * * * * * * * * * * * * * * //

dimensions      [0 0 0 1 0 0 0];


internalField   nonuniform List<scalar> 
37
(
0.0117072
0.000402805
0.00294625
-0.000995779
0.00204033
0.00348425
0.00526354
-0.00258859
0.00126806
0.00425835
0.00646648
0.00521906
0.0026524
0.00167681
0.000187918
0.000663883
0.00171594
0.014894
0.0132736
0.0211808
0.00831667
0.000726065
0.0011025
-0.00045234
0.00216439
0.00791725
0.00643314
0.00280733
0.00742027
0.00687664
0.00569579
0.00927918
0.00771485
-0.00390841
0.00903702
0.0164055
0.0129138
)
;

boundaryField
{
    frontAndBack
    {
        type            empty;
    }
    top
    {
        type            fixedValue;
        value           uniform 100;
    }
    left
    {
        type            zeroGradient;
    }
    bottom
    {
        type            fixedValue;
        value           uniform 50;
    }
    right
    {
        type            zeroGradient;
    }
}


// ************************************************************************* //
