/*--------------------------------*- C++ -*----------------------------------*\
| =========                 |                                                 |
| \\      /  F ield         | OpenFOAM: The Open Source CFD Toolbox           |
|  \\    /   O peration     | Version:  v1806                                 |
|   \\  /    A nd           | Web:      www.OpenFOAM.com                      |
|    \\/     M anipulation  |                                                 |
\*---------------------------------------------------------------------------*/
FoamFile
{
    version     2.0;
    format      ascii;
    class       volScalarField;
    location    "0.01";
    object      diffH;
}
// * * * * * * * * * * * * * * * * * * * * * * * * * * * * * * * * * * * * * //

dimensions      [0 0 0 1 0 0 0];


internalField   nonuniform List<scalar> 
37
(
-0.0155405
0.924986
-2.70887
0.932597
-1.25245
-1.61412
-2.04606
9.8957
3.92896
-1.93469
-0.657144
0.565928
-0.957738
-2.71324
1.85518
4.18339
-4.26539
1.04357
1.1301
3.38052
-1.55847
-6.58011
-3.17584
2.24432
0.976559
-0.896298
-0.202521
-8.19691
-1.69777
-0.841702
-1.31031
1.09111
-0.810182
1.14656
3.25201
7.20677
4.30725
)
;

boundaryField
{
    frontAndBack
    {
        type            empty;
    }
    top
    {
        type            fixedValue;
        value           uniform 100;
    }
    left
    {
        type            zeroGradient;
    }
    bottom
    {
        type            fixedValue;
        value           uniform 50;
    }
    right
    {
        type            zeroGradient;
    }
}


// ************************************************************************* //
