/*--------------------------------*- C++ -*----------------------------------*\
| =========                 |                                                 |
| \\      /  F ield         | OpenFOAM: The Open Source CFD Toolbox           |
|  \\    /   O peration     | Version:  v1806                                 |
|   \\  /    A nd           | Web:      www.OpenFOAM.com                      |
|    \\/     M anipulation  |                                                 |
\*---------------------------------------------------------------------------*/
FoamFile
{
    version     2.0;
    format      ascii;
    class       volScalarField;
    location    "0.05";
    object      diffH;
}
// * * * * * * * * * * * * * * * * * * * * * * * * * * * * * * * * * * * * * //

dimensions      [0 0 0 1 0 0 0];


internalField   uniform 0;

boundaryField
{
    frontAndBack
    {
        type            empty;
    }
    top
    {
        type            fixedValue;
        value           uniform 100;
    }
    left
    {
        type            zeroGradient;
    }
    bottom
    {
        type            fixedValue;
        value           uniform 50;
    }
    right
    {
        type            zeroGradient;
    }
}


// ************************************************************************* //
